# vtk DataFile Version 3.0
vtk output
ASCII
DATASET POLYDATA
POINTS 36030 float
-2.03091 -4.79883 41.9544 -2.00208 -4.60178 41.9885 -1.98433 -4.50938 41.8097 
-2.0022 -4.64933 41.6651 -2.03099 -4.82822 41.7545 -0.309273 -5.05717 41.9917 
-0.283386 -4.8597 42.0258 -0.270409 -4.76663 41.8469 -0.288277 -4.90658 41.7023 
-0.312294 -5.08614 41.7918 1.43291 -5.25486 41.9679 1.45008 -5.05647 42.0021 
1.451 -4.96211 41.8235 1.43439 -5.10219 41.6788 1.42321 -5.28311 41.768 
3.1747 -5.33654 41.8624 3.17776 -5.13757 41.8975 3.17023 -5.0427 41.7192 
3.16251 -5.18304 41.5741 3.16527 -5.36464 41.6626 4.90428 -5.2811 41.8074 
4.88776 -5.08286 41.8428 4.88612 -4.98753 41.6646 4.90165 -5.12685 41.5191 
4.91286 -5.30828 41.6073 6.58755 -5.07361 41.9701 6.54098 -4.87952 42.0014 
6.56887 -4.77978 41.8279 6.63268 -4.91222 41.6893 6.64423 -5.09382 41.7772 
9.66615 -4.22092 43.4204 9.58564 -4.03625 43.4357 9.66113 -3.92268 43.2866 
9.78829 -4.03719 43.1792 9.7914 -4.22151 43.2619 11.6715 -3.19892 45.9452 
11.5745 -3.02174 45.942 11.6766 -2.89677 45.8204 11.8368 -2.99672 45.7485 
11.8337 -3.18346 45.8256 13.4889 -2.01597 48.9208 13.3866 -1.84212 48.9093 
13.4972 -1.71156 48.8019 13.6679 -1.8047 48.747 13.6628 -1.99284 48.8205 
14.623 -1.1153 51.4482 14.5192 -0.942596 51.4332 14.634 -0.809097 51.3341 
14.8087 -0.899269 51.2878 14.8019 -1.08851 51.3583 -2.03091 -4.79883 41.9544 
-2.00208 -4.60178 41.9885 -1.98433 -4.50938 41.8097 -2.0022 -4.64933 41.6651 
-2.03099 -4.82822 41.7545 14.623 -1.1153 51.4482 14.5192 -0.942596 51.4332 
14.634 -0.809097 51.3341 14.8087 -0.899269 51.2878 14.8019 -1.08851 51.3583 
1.33439 14.8256 52.0431 1.38989 14.8113 51.8493 1.5763 14.7335 51.8434 
1.63601 14.6998 52.0334 1.48651 14.7567 52.1569 2.7377 18.1762 52.1963 
2.78577 18.1469 52.0022 2.96019 18.0451 51.9958 3.01991 18.0114 52.1858 
2.88241 18.0924 52.3098 4.22037 20.0872 52.0696 4.25471 20.0391 51.8764 
4.40072 19.8995 51.8718 4.4566 19.8613 52.0622 4.34514 19.9774 52.1844 
6.06371 21.6644 51.9195 6.09425 21.6123 51.7267 6.21631 21.4513 51.7241 
6.2612 21.4039 51.9154 6.16689 21.5356 52.0361 7.42567 22.5786 51.8986 
7.45734 22.527 51.7058 7.56989 22.3593 51.7037 7.6078 22.3071 51.8952 
7.51866 22.4427 52.0156 1.33439 14.8256 52.0431 1.38989 14.8113 51.8493 
1.5763 14.7335 51.8434 1.63601 14.6998 52.0334 1.48651 14.7567 52.1569 
7.42567 22.5786 51.8986 7.45734 22.527 51.7058 7.56989 22.3593 51.7037 
7.6078 22.3071 51.8952 7.51866 22.4427 52.0156 -3.70892 -3.93961 41.9138 
-3.65672 -3.75223 41.8591 -3.61078 -3.75509 41.6624 -3.63457 -3.94424 41.5955 
-3.69523 -4.05829 41.7509 -0.341408 -4.64439 42.7084 -0.307426 -4.45371 42.6509 
-0.290947 -4.45123 42.4495 -0.314743 -4.6404 42.3826 -0.345924 -4.75977 42.5426 
1.41841 -4.82243 42.5861 1.42555 -4.62868 42.5292 1.40426 -4.62172 42.3284 
1.38396 -4.81116 42.2612 1.39272 -4.93521 42.4204 3.17506 -4.88653 42.3289 
3.17225 -4.69227 42.2734 3.15311 -4.68503 42.0724 3.14409 -4.87482 42.0037 
3.15765 -4.99935 42.1622 4.93342 -4.86862 42.2485 4.9261 -4.67444 42.1931 
4.93327 -4.66674 41.9914 4.94502 -4.85616 41.922 4.94511 -4.98093 42.081 
6.64986 -4.72023 42.4552 6.63358 -4.52703 42.3983 6.68832 -4.51426 42.2042 
6.73844 -4.69955 42.1412 6.71468 -4.82685 42.2963 10.0014 -3.83049 44.0895 
9.97755 -3.63892 44.0299 10.0948 -3.60881 43.8681 10.1911 -3.78178 43.8277 
10.1334 -3.91879 43.9646 11.5966 -2.98876 46.0766 11.5715 -2.79759 46.0162 
11.7261 -2.74949 45.8953 11.8467 -2.91093 45.881 11.7667 -3.05881 45.993 
12.8193 -2.10076 48.3966 12.7931 -1.90933 48.3374 12.9559 -1.8539 48.2314 
13.0827 -2.01109 48.225 12.9983 -2.16364 48.327 14.1612 -1.12206 50.9914 
14.1352 -0.930511 50.9326 14.2983 -0.87484 50.8273 14.4252 -1.03198 50.8209 
14.3404 -1.18478 50.9224 -3.70892 -3.93961 41.9138 -3.65672 -3.75223 41.8591 
-3.61078 -3.75509 41.6624 -3.63457 -3.94424 41.5955 -3.69523 -4.05829 41.7509 
14.1612 -1.12206 50.9914 14.1352 -0.930511 50.9326 14.2983 -0.87484 50.8273 
14.4252 -1.03198 50.8209 14.3404 -1.18478 50.9224 6.5342 5.71049 47.3803 
6.70329 5.78249 47.2963 6.71007 5.98153 47.3304 6.54518 6.03255 47.4355 
6.43649 5.86503 47.4663 5.72806 5.97684 45.9856 5.89714 6.04883 45.9016 
5.90392 6.24787 45.9357 5.73904 6.29889 46.0407 5.63034 6.13138 46.0716 
4.9121 6.24773 44.5732 5.08797 6.31658 44.5014 5.10572 6.51053 44.5552 
4.94084 6.56155 44.6602 4.82117 6.39912 44.6714 4.83308 6.32088 44.4136 
5.01511 6.385 44.3538 5.04285 6.5713 44.427 4.87796 6.62231 44.532 
4.74831 6.46755 44.5238 6.5342 5.71049 47.3803 6.70329 5.78249 47.2963 
6.71007 5.98153 47.3304 6.54518 6.03255 47.4355 6.43649 5.86503 47.4663 
4.83308 6.32088 44.4136 5.01511 6.385 44.3538 5.04285 6.5713 44.427 
4.87796 6.62231 44.532 4.74831 6.46755 44.5238 5.91412 6.34835 48.5332 
5.92343 6.55 48.5245 5.74214 6.62315 48.5755 5.62078 6.46669 48.6158 
5.72707 6.29687 48.5896 5.51794 6.30987 47.1897 5.53339 6.51115 47.1981 
5.36201 6.58371 47.2767 5.24065 6.42726 47.317 5.33703 6.25801 47.2632 
5.00182 6.47964 46.2941 5.02304 6.67955 46.3144 4.8591 6.75048 46.4088 
4.73655 6.59442 46.4469 4.82476 6.42702 46.376 4.20957 6.69748 44.5073 
4.22867 6.89799 44.5233 4.05964 6.97033 44.6071 3.93608 6.81453 44.643 
4.02873 6.6459 44.5813 5.91412 6.34835 48.5332 5.92343 6.55 48.5245 
5.74214 6.62315 48.5755 5.62078 6.46669 48.6158 5.72707 6.29687 48.5896 
4.20957 6.69748 44.5073 4.22867 6.89799 44.5233 4.05964 6.97033 44.6071 
3.93608 6.81453 44.643 4.02873 6.6459 44.5813 4.55415 6.81506 44.5832 
4.41602 6.68636 44.6552 4.2714 6.79435 44.746 4.32015 6.9898 44.7301 
4.4949 7.00258 44.6295 6.0183 6.65496 47.1084 5.8736 6.52683 47.1673 
5.71836 6.63577 47.237 5.76711 6.83121 47.2211 5.95248 6.84307 47.1416 
6.80497 6.67532 49.776 6.65078 6.54665 49.7981 6.48046 6.65472 49.8099 
6.5294 6.85018 49.795 6.72996 6.86292 49.774 6.62985 6.86447 51.8192 
6.47826 6.73232 51.7995 6.31071 6.83578 51.7543 6.35874 7.03187 51.746 
6.55598 7.04959 51.7861 5.95005 7.05416 53.7991 5.81007 6.91886 53.745 
5.65218 7.01938 53.6689 5.69457 7.2168 53.676 5.87866 7.2383 53.7564 
4.79936 7.09745 55.8846 4.6729 6.9614 55.8051 4.52312 7.0614 55.7135 
4.55701 7.25927 55.7364 4.72774 7.28156 55.8422 3.46499 7.01593 57.8235 
3.34459 6.87999 57.7349 3.19804 6.98 57.6383 3.22784 7.17775 57.6671 
3.39283 7.19996 57.7816 4.55415 6.81506 44.5832 4.41602 6.68636 44.6552 
4.2714 6.79435 44.746 4.32015 6.9898 44.7301 4.4949 7.00258 44.6295 
3.46499 7.01593 57.8235 3.34459 6.87999 57.7349 3.19804 6.98 57.6383 
3.22784 7.17775 57.6671 3.39283 7.19996 57.7816 7.96212 10.1175 54.6123 
7.86274 10.1374 54.7871 7.78713 9.95681 54.8369 7.83979 9.82522 54.6929 
7.94793 9.92451 54.5541 4.95065 10.8808 52.8134 4.86114 10.8988 52.9936 
4.80149 10.7149 53.0523 4.85415 10.5832 52.9083 4.94633 10.6858 52.7607 
1.52401 11.1403 51.3233 1.42416 11.1577 51.4981 1.38782 10.9716 51.568 
1.46521 10.8393 51.4364 1.54939 10.9436 51.2852 -0.207878 10.9232 50.0723 
-0.327126 10.9393 50.2346 -0.357277 10.7537 50.3085 -0.256668 10.6229 50.1919 
-0.16433 10.7277 50.0459 7.96212 10.1175 54.6123 7.86274 10.1374 54.7871 
7.78713 9.95681 54.8369 7.83979 9.82522 54.6929 7.94793 9.92451 54.5541 
-0.207878 10.9232 50.0723 -0.327126 10.9393 50.2346 -0.357277 10.7537 50.3085 
-0.256668 10.6229 50.1919 -0.16433 10.7277 50.0459 14.3956 -0.946579 50.7112 
14.2845 -0.777954 50.704 14.1144 -0.810799 50.8079 14.1203 -0.999718 50.8792 
14.2941 -1.08363 50.8195 13.233 -1.80505 48.5356 13.123 -1.63568 48.5303 
12.9545 -1.6673 48.6373 12.9604 -1.85625 48.7087 13.1326 -1.94137 48.6459 
11.9667 -2.65907 46.3806 11.863 -2.48574 46.3852 11.7051 -2.51075 46.5087 
11.7112 -2.69956 46.5805 11.8729 -2.79122 46.5013 9.1864 -3.9761 43.175 
9.10347 -3.79373 43.2013 8.98125 -3.80326 43.3619 8.98866 -3.99152 43.4349 
9.11546 -4.09833 43.3194 7.1993 -4.4682 42.155 7.14841 -4.27759 42.1986 
7.08301 -4.27258 42.3897 7.09348 -4.46011 42.4642 7.16534 -4.581 42.3191 
4.99271 -4.77382 41.7556 4.97214 -4.57894 41.8048 4.96143 -4.56625 42.0062 
4.9754 -4.75327 42.0814 4.99472 -4.88155 41.9265 3.17755 -4.86434 41.906 
3.18056 -4.66815 41.9543 3.2051 -4.65337 42.1543 3.21726 -4.84044 42.2297 
3.20023 -4.97083 42.0762 1.38194 -4.82909 42.2011 1.39748 -4.63303 42.2474 
1.42212 -4.61789 42.4474 1.42181 -4.80458 42.5247 1.39699 -4.93511 42.3724 
-0.353111 -4.68699 42.3311 -0.328041 -4.49178 42.3768 -0.32827 -4.47429 42.5781 
-0.353477 -4.65868 42.6568 -0.368835 -4.79013 42.5041 -2.03029 -4.38261 42.1615 
-1.99321 -4.18964 42.2086 -2.02695 -4.16601 42.4064 -2.08488 -4.34437 42.4816 
-2.08694 -4.47823 42.3303 -3.44091 -3.95317 41.7319 -3.39776 -3.76199 41.7811 
-3.44826 -3.7344 41.9747 -3.52261 -3.90852 42.0453 -3.51807 -4.04372 41.8952 
14.3956 -0.946579 50.7112 14.2845 -0.777954 50.704 14.1144 -0.810799 50.8079 
14.1203 -0.999718 50.8792 14.2941 -1.08363 50.8195 -3.44091 -3.95317 41.7319 
-3.39776 -3.76199 41.7811 -3.44826 -3.7344 41.9747 -3.52261 -3.90852 42.0453 
-3.51807 -4.04372 41.8952 4.11462 -0.32592 36.4239 3.99731 -0.408203 36.2814 
3.93589 -0.260414 36.1581 4.01525 -0.0867996 36.2243 4.12571 -0.127281 36.3886 
1.97088 0.0672226 37.9622 1.857 -0.0157166 37.8173 1.80116 0.130997 37.6901 
1.88052 0.304604 37.7563 1.98541 0.26519 37.9245 -0.24897 0.551842 39.3518 
-0.354576 0.467072 39.2019 -0.397026 0.610817 39.0664 -0.317673 0.784439 39.1326 
-0.226173 0.747978 39.309 -1.96914 1.00159 40.2341 -2.06988 0.915588 40.0815 
-2.10446 1.05736 39.9418 -2.02511 1.23099 40.008 -1.94147 1.1965 40.1887 
4.11462 -0.32592 36.4239 3.99731 -0.408203 36.2814 3.93589 -0.260414 36.1581 
4.01525 -0.0867996 36.2243 4.12571 -0.127281 36.3886 -1.96914 1.00159 40.2341 
-2.06988 0.915588 40.0815 -2.10446 1.05736 39.9418 -2.02511 1.23099 40.008 
-1.94147 1.1965 40.1887 3.95825 -0.0296021 38.7691 3.97092 0.171486 38.754 
4.08397 0.238579 38.9075 4.14117 0.078949 39.0173 4.06348 -0.0867996 38.9318 
1.63067 0.237091 40.3682 1.65206 0.436859 40.3467 1.77921 0.501801 40.4897 
1.83641 0.342171 40.5996 1.74461 0.178574 40.5245 -0.387985 0.812111 42.255 
[...]
POINT_DATA 36030
COLOR_SCALARS scalars 4
0.843137 0.105882 0.529412 1 0.843137 0.105882 0.529412 1 0.843137 0.105882 0.529412 1 
0.843137 0.105882 0.529412 1 0.843137 0.105882 0.529412 1 
0.843137 0.105882 0.529412 1 0.843137 0.105882 0.529412 1 
0.843137 0.105882 0.529412 1 0.843137 0.105882 0.529412 1 
0.843137 0.105882 0.529412 1 0.843137 0.105882 0.529412 1 
0.843137 0.105882 0.529412 1 0.843137 0.105882 0.529412 1 
0.843137 0.105882 0.529412 1 0.843137 0.105882 0.529412 1 
0.843137 0.105882 0.529412 1 0.843137 0.105882 0.529412 1 
0.843137 0.105882 0.529412 1 0.843137 0.105882 0.529412 1 
0.843137 0.105882 0.529412 1 0.843137 0.105882 0.529412 1 
0.843137 0.105882 0.529412 1 0.843137 0.105882 0.529412 1 
0.843137 0.105882 0.529412 1 0.843137 0.105882 0.529412 1 
0.843137 0.105882 0.529412 1 0.843137 0.105882 0.529412 1 
0.843137 0.105882 0.529412 1 0.843137 0.105882 0.529412 1 
0.843137 0.105882 0.529412 1 0.843137 0.105882 0.529412 1 
0.843137 0.105882 0.529412 1 0.843137 0.105882 0.529412 1 
0.843137 0.105882 0.529412 1 0.843137 0.105882 0.529412 1 
0.843137 0.105882 0.529412 1 0.843137 0.105882 0.529412 1 
0.843137 0.105882 0.529412 1 0.843137 0.105882 0.529412 1 
0.843137 0.105882 0.529412 1 0.843137 0.105882 0.529412 1 
0.843137 0.105882 0.529412 1 0.843137 0.105882 0.529412 1 
0.843137 0.105882 0.529412 1 0.843137 0.105882 0.529412 1 
0.843137 0.105882 0.529412 1 0.843137 0.105882 0.529412 1 
0.843137 0.105882 0.529412 1 0.843137 0.105882 0.529412 1 
0.843137 0.105882 0.529412 1 0.843137 0.105882 0.529412 1 
0.843137 0.105882 0.529412 1 0.843137 0.105882 0.529412 1 
0.843137 0.105882 0.529412 1 0.843137 0.105882 0.529412 1 
0.843137 0.105882 0.529412 1 0.843137 0.105882 0.529412 1 
0.843137 0.105882 0.529412 1 0.843137 0.105882 0.529412 1 
0.843137 0.105882 0.529412 1 0.607843 0.784314 0.105882 1 
0.607843 0.784314 0.105882 1 0.607843 0.784314 0.105882 1 
0.607843 0.784314 0.105882 1 0.607843 0.784314 0.105882 1 
0.607843 0.784314 0.105882 1 0.607843 0.784314 0.105882 1 
0.607843 0.784314 0.105882 1 0.607843 0.784314 0.105882 1 
0.607843 0.784314 0.105882 1 0.607843 0.784314 0.105882 1 
0.607843 0.784314 0.105882 1 0.607843 0.784314 0.105882 1 
0.607843 0.784314 0.105882 1 0.607843 0.784314 0.105882 1 
0.607843 0.784314 0.105882 1 0.607843 0.784314 0.105882 1 
0.607843 0.784314 0.105882 1 0.607843 0.784314 0.105882 1 
0.607843 0.784314 0.105882 1 0.607843 0.784314 0.105882 1 
0.607843 0.784314 0.105882 1 0.607843 0.784314 0.105882 1 
0.607843 0.784314 0.105882 1 0.607843 0.784314 0.105882 1 
0.607843 0.784314 0.105882 1 0.607843 0.784314 0.105882 1 
0.607843 0.784314 0.105882 1 0.607843 0.784314 0.105882 1 
0.607843 0.784314 0.105882 1 0.607843 0.784314 0.105882 1 
0.607843 0.784314 0.105882 1 0.607843 0.784314 0.105882 1 
0.607843 0.784314 0.105882 1 0.607843 0.784314 0.105882 1 
0.866667 0.105882 0.486275 1 0.866667 0.105882 0.486275 1 
0.866667 0.105882 0.486275 1 0.866667 0.105882 0.486275 1 
0.866667 0.105882 0.486275 1 0.866667 0.105882 0.486275 1 
0.866667 0.105882 0.486275 1 0.866667 0.105882 0.486275 1 
0.866667 0.105882 0.486275 1 0.866667 0.105882 0.486275 1 
0.866667 0.105882 0.486275 1 0.866667 0.105882 0.486275 1 
0.866667 0.105882 0.486275 1 0.866667 0.105882 0.486275 1 
0.866667 0.105882 0.486275 1 0.866667 0.105882 0.486275 1 
0.866667 0.105882 0.486275 1 0.866667 0.105882 0.486275 1 
0.866667 0.105882 0.486275 1 0.866667 0.105882 0.486275 1 
0.866667 0.105882 0.486275 1 0.866667 0.105882 0.486275 1 
0.866667 0.105882 0.486275 1 0.866667 0.105882 0.486275 1 
0.866667 0.105882 0.486275 1 0.866667 0.105882 0.486275 1 
0.866667 0.105882 0.486275 1 0.866667 0.105882 0.486275 1 
0.866667 0.105882 0.486275 1 0.866667 0.105882 0.486275 1 
0.866667 0.105882 0.486275 1 0.866667 0.105882 0.486275 1 
0.866667 0.105882 0.486275 1 0.866667 0.105882 0.486275 1 
0.866667 0.105882 0.486275 1 0.866667 0.105882 0.486275 1 
0.866667 0.105882 0.486275 1 0.866667 0.105882 0.486275 1 
0.866667 0.105882 0.486275 1 0.866667 0.105882 0.486275 1 
0.866667 0.105882 0.486275 1 0.866667 0.105882 0.486275 1 
0.866667 0.105882 0.486275 1 0.866667 0.105882 0.486275 1 
0.866667 0.105882 0.486275 1 0.866667 0.105882 0.486275 1 
0.866667 0.105882 0.486275 1 0.866667 0.105882 0.486275 1 
0.866667 0.105882 0.486275 1 0.866667 0.105882 0.486275 1 
0.866667 0.105882 0.486275 1 0.866667 0.105882 0.486275 1 
0.866667 0.105882 0.486275 1 0.866667 0.105882 0.486275 1 
0.866667 0.105882 0.486275 1 0.866667 0.105882 0.486275 1 
0.866667 0.105882 0.486275 1 0.866667 0.105882 0.486275 1 
0.866667 0.105882 0.486275 1 0.866667 0.105882 0.486275 1 
0.494118 0.262745 0.827451 1 0.494118 0.262745 0.827451 1 
0.494118 0.262745 0.827451 1 0.494118 0.262745 0.827451 1 
0.494118 0.262745 0.827451 1 0.494118 0.262745 0.827451 1 
0.494118 0.262745 0.827451 1 0.494118 0.262745 0.827451 1 
0.494118 0.262745 0.827451 1 0.494118 0.262745 0.827451 1 
0.494118 0.262745 0.827451 1 0.494118 0.262745 0.827451 1 
0.494118 0.262745 0.827451 1 0.494118 0.262745 0.827451 1 
0.494118 0.262745 0.827451 1 0.494118 0.262745 0.827451 1 
0.494118 0.262745 0.827451 1 0.494118 0.262745 0.827451 1 
0.494118 0.262745 0.827451 1 0.494118 0.262745 0.827451 1 
0.494118 0.262745 0.827451 1 0.494118 0.262745 0.827451 1 
0.494118 0.262745 0.827451 1 0.494118 0.262745 0.827451 1 
0.494118 0.262745 0.827451 1 0.494118 0.262745 0.827451 1 
0.494118 0.262745 0.827451 1 0.494118 0.262745 0.827451 1 
0.494118 0.262745 0.827451 1 0.494118 0.262745 0.827451 1 
0.403922 0.207843 0.890196 1 0.403922 0.207843 0.890196 1 
0.403922 0.207843 0.890196 1 0.403922 0.207843 0.890196 1 
0.403922 0.207843 0.890196 1 0.403922 0.207843 0.890196 1 
0.403922 0.207843 0.890196 1 0.403922 0.207843 0.890196 1 
0.403922 0.207843 0.890196 1 0.403922 0.207843 0.890196 1 
0.403922 0.207843 0.890196 1 0.403922 0.207843 0.890196 1 
0.403922 0.207843 0.890196 1 0.403922 0.207843 0.890196 1 
0.403922 0.207843 0.890196 1 0.403922 0.207843 0.890196 1 
0.403922 0.207843 0.890196 1 0.403922 0.207843 0.890196 1 
0.403922 0.207843 0.890196 1 0.403922 0.207843 0.890196 1 
0.403922 0.207843 0.890196 1 0.403922 0.207843 0.890196 1 
0.403922 0.207843 0.890196 1 0.403922 0.207843 0.890196 1 
0.403922 0.207843 0.890196 1 0.403922 0.207843 0.890196 1 
0.403922 0.207843 0.890196 1 0.403922 0.207843 0.890196 1 
0.403922 0.207843 0.890196 1 0.403922 0.207843 0.890196 1 
0.0980392 0.0980392 0.992157 1 0.0980392 0.0980392 0.992157 1 
0.0980392 0.0980392 0.992157 1 0.0980392 0.0980392 0.992157 1 
0.0980392 0.0980392 0.992157 1 0.0980392 0.0980392 0.992157 1 
0.0980392 0.0980392 0.992157 1 0.0980392 0.0980392 0.992157 1 
0.0980392 0.0980392 0.992157 1 0.0980392 0.0980392 0.992157 1 
0.0980392 0.0980392 0.992157 1 0.0980392 0.0980392 0.992157 1 
0.0980392 0.0980392 0.992157 1 0.0980392 0.0980392 0.992157 1 
0.0980392 0.0980392 0.992157 1 0.0980392 0.0980392 0.992157 1 
0.0980392 0.0980392 0.992157 1 0.0980392 0.0980392 0.992157 1 
0.0980392 0.0980392 0.992157 1 0.0980392 0.0980392 0.992157 1 
0.0980392 0.0980392 0.992157 1 0.0980392 0.0980392 0.992157 1 
0.0980392 0.0980392 0.992157 1 0.0980392 0.0980392 0.992157 1 
0.0980392 0.0980392 0.992157 1 0.0980392 0.0980392 0.992157 1 
0.0980392 0.0980392 0.992157 1 0.0980392 0.0980392 0.992157 1 
0.0980392 0.0980392 0.992157 1 0.0980392 0.0980392 0.992157 1 
0.0980392 0.0980392 0.992157 1 0.0980392 0.0980392 0.992157 1 
0.0980392 0.0980392 0.992157 1 0.0980392 0.0980392 0.992157 1 
0.0980392 0.0980392 0.992157 1 0.0980392 0.0980392 0.992157 1 
0.0980392 0.0980392 0.992157 1 0.0980392 0.0980392 0.992157 1 
0.0980392 0.0980392 0.992157 1 0.0980392 0.0980392 0.992157 1 
0.0980392 0.0980392 0.992157 1 0.0980392 0.0980392 0.992157 1 
0.0980392 0.0980392 0.992157 1 0.0980392 0.0980392 0.992157 1 
0.0980392 0.0980392 0.992157 1 0.858824 0.156863 0.490196 1 
0.858824 0.156863 0.490196 1 0.858824 0.156863 0.490196 1 
0.858824 0.156863 0.490196 1 0.858824 0.156863 0.490196 1 
0.858824 0.156863 0.490196 1 0.858824 0.156863 0.490196 1 
0.858824 0.156863 0.490196 1 0.858824 0.156863 0.490196 1 
0.858824 0.156863 0.490196 1 0.858824 0.156863 0.490196 1 
0.858824 0.156863 0.490196 1 0.858824 0.156863 0.490196 1 
0.858824 0.156863 0.490196 1 0.858824 0.156863 0.490196 1 
0.858824 0.156863 0.490196 1 0.858824 0.156863 0.490196 1 
0.858824 0.156863 0.490196 1 0.858824 0.156863 0.490196 1 
0.858824 0.156863 0.490196 1 0.858824 0.156863 0.490196 1 
0.858824 0.156863 0.490196 1 0.858824 0.156863 0.490196 1 
0.858824 0.156863 0.490196 1 0.858824 0.156863 0.490196 1 
0.858824 0.156863 0.490196 1 0.858824 0.156863 0.490196 1 
0.858824 0.156863 0.490196 1 0.858824 0.156863 0.490196 1 
0.858824 0.156863 0.490196 1 0.890196 0.105882 0.439216 1 
0.890196 0.105882 0.439216 1 0.890196 0.105882 0.439216 1 
0.890196 0.105882 0.439216 1 0.890196 0.105882 0.439216 1 
0.890196 0.105882 0.439216 1 0.890196 0.105882 0.439216 1 
0.890196 0.105882 0.439216 1 0.890196 0.105882 0.439216 1 
0.890196 0.105882 0.439216 1 0.890196 0.105882 0.439216 1 
0.890196 0.105882 0.439216 1 0.890196 0.105882 0.439216 1 
0.890196 0.105882 0.439216 1 0.890196 0.105882 0.439216 1 
0.890196 0.105882 0.439216 1 0.890196 0.105882 0.439216 1 
0.890196 0.105882 0.439216 1 0.890196 0.105882 0.439216 1 
0.890196 0.105882 0.439216 1 0.890196 0.105882 0.439216 1 
0.890196 0.105882 0.439216 1 0.890196 0.105882 0.439216 1 
0.890196 0.105882 0.439216 1 0.890196 0.105882 0.439216 1 
0.890196 0.105882 0.439216 1 0.890196 0.105882 0.439216 1 
0.890196 0.105882 0.439216 1 0.890196 0.105882 0.439216 1 
0.890196 0.105882 0.439216 1 0.890196 0.105882 0.439216 1 
0.890196 0.105882 0.439216 1 0.890196 0.105882 0.439216 1 
0.890196 0.105882 0.439216 1 0.890196 0.105882 0.439216 1 
0.890196 0.105882 0.439216 1 0.890196 0.105882 0.439216 1 
0.890196 0.105882 0.439216 1 0.890196 0.105882 0.439216 1 
0.890196 0.105882 0.439216 1 0.890196 0.105882 0.439216 1 
0.890196 0.105882 0.439216 1 0.890196 0.105882 0.439216 1 
0.890196 0.105882 0.439216 1 0.890196 0.105882 0.439216 1 
0.890196 0.105882 0.439216 1 0.890196 0.105882 0.439216 1 
0.890196 0.105882 0.439216 1 0.890196 0.105882 0.439216 1 
0.890196 0.105882 0.439216 1 0.890196 0.105882 0.439216 1 
0.890196 0.105882 0.439216 1 0.890196 0.105882 0.439216 1 
0.890196 0.105882 0.439216 1 0.890196 0.105882 0.439216 1 
0.890196 0.105882 0.439216 1 0.890196 0.105882 0.439216 1 
0.890196 0.105882 0.439216 1 0.890196 0.105882 0.439216 1 
0.890196 0.105882 0.439216 1 0.890196 0.105882 0.439216 1 
0.890196 0.105882 0.439216 1 0.890196 0.105882 0.439216 1 
0.890196 0.105882 0.439216 1 0.890196 0.105882 0.439216 1 
0.843137 0.105882 0.529412 1 0.843137 0.105882 0.529412 1 
0.843137 0.105882 0.529412 1 0.843137 0.105882 0.529412 1 
0.843137 0.105882 0.529412 1 0.843137 0.105882 0.529412 1 
0.843137 0.105882 0.529412 1 0.843137 0.105882 0.529412 1 
0.843137 0.105882 0.529412 1 0.843137 0.105882 0.529412 1 
0.843137 0.105882 0.529412 1 0.843137 0.105882 0.529412 1 
0.843137 0.105882 0.529412 1 0.843137 0.105882 0.529412 1 
0.843137 0.105882 0.529412 1 0.843137 0.105882 0.529412 1 
0.843137 0.105882 0.529412 1 0.843137 0.105882 0.529412 1 
0.843137 0.105882 0.529412 1 0.843137 0.105882 0.529412 1 
0.843137 0.105882 0.529412 1 0.843137 0.105882 0.529412 1 
0.843137 0.105882 0.529412 1 0.843137 0.105882 0.529412 1 
0.843137 0.105882 0.529412 1 0.843137 0.105882 0.529412 1 
0.843137 0.105882 0.529412 1 0.843137 0.105882 0.529412 1 
0.843137 0.105882 0.529412 1 0.843137 0.105882 0.529412 1 
0.494118 0.211765 0.843137 1 0.494118 0.211765 0.843137 1 
0.494118 0.211765 0.843137 1 0.494118 0.211765 0.843137 1 
0.494118 0.211765 0.843137 1 0.494118 0.211765 0.843137 1 
0.494118 0.211765 0.843137 1 0.494118 0.211765 0.843137 1 
0.494118 0.211765 0.843137 1 0.494118 0.211765 0.843137 1 
0.494118 0.211765 0.843137 1 0.494118 0.211765 0.843137 1 
0.494118 0.211765 0.843137 1 0.494118 0.211765 0.843137 1 
0.494118 0.211765 0.843137 1 0.494118 0.211765 0.843137 1 
0.494118 0.211765 0.843137 1 0.494118 0.211765 0.843137 1 
0.494118 0.211765 0.843137 1 0.494118 0.211765 0.843137 1 
0.494118 0.211765 0.843137 1 0.494118 0.211765 0.843137 1 
0.494118 0.211765 0.843137 1 0.494118 0.211765 0.843137 1 
0.494118 0.211765 0.843137 1 0.494118 0.211765 0.843137 1 
0.494118 0.211765 0.843137 1 0.494118 0.211765 0.843137 1 
0.494118 0.211765 0.843137 1 0.494118 0.211765 0.843137 1 
0.494118 0.211765 0.843137 1 0.494118 0.211765 0.843137 1 
0.494118 0.211765 0.843137 1 0.494118 0.211765 0.843137 1 
0.494118 0.211765 0.843137 1 0.784314 0.105882 0.607843 1 
0.784314 0.105882 0.607843 1 0.784314 0.105882 0.607843 1 
0.784314 0.105882 0.607843 1 0.784314 0.105882 0.607843 1 
0.784314 0.105882 0.607843 1 0.784314 0.105882 0.607843 1 
0.784314 0.105882 0.607843 1 0.784314 0.105882 0.607843 1 
0.784314 0.105882 0.607843 1 0.784314 0.105882 0.607843 1 
0.784314 0.105882 0.607843 1 0.784314 0.105882 0.607843 1 
0.784314 0.105882 0.607843 1 0.784314 0.105882 0.607843 1 
0.784314 0.105882 0.607843 1 0.784314 0.105882 0.607843 1 
0.784314 0.105882 0.607843 1 0.784314 0.105882 0.607843 1 
0.784314 0.105882 0.607843 1 0.784314 0.105882 0.607843 1 
0.784314 0.105882 0.607843 1 0.784314 0.105882 0.607843 1 
0.784314 0.105882 0.607843 1 0.784314 0.105882 0.607843 1 
0.784314 0.105882 0.607843 1 0.784314 0.105882 0.607843 1 
0.784314 0.105882 0.607843 1 0.784314 0.105882 0.607843 1 
0.784314 0.105882 0.607843 1 0.654902 0.266667 0.705882 1 
0.654902 0.266667 0.705882 1 0.654902 0.266667 0.705882 1 
0.654902 0.266667 0.705882 1 0.654902 0.266667 0.705882 1 
0.654902 0.266667 0.705882 1 0.654902 0.266667 0.705882 1 
0.654902 0.266667 0.705882 1 0.654902 0.266667 0.705882 1 
0.654902 0.266667 0.705882 1 0.654902 0.266667 0.705882 1 
0.654902 0.266667 0.705882 1 0.654902 0.266667 0.705882 1 
0.654902 0.266667 0.705882 1 0.654902 0.266667 0.705882 1 
0.654902 0.266667 0.705882 1 0.654902 0.266667 0.705882 1 
0.654902 0.266667 0.705882 1 0.654902 0.266667 0.705882 1 
0.654902 0.266667 0.705882 1 0.654902 0.266667 0.705882 1 
0.654902 0.266667 0.705882 1 0.654902 0.266667 0.705882 1 
0.654902 0.266667 0.705882 1 0.654902 0.266667 0.705882 1 
0.352941 0.207843 0.913725 1 0.352941 0.207843 0.913725 1 
0.352941 0.207843 0.913725 1 0.352941 0.207843 0.913725 1 
0.352941 0.207843 0.913725 1 0.352941 0.207843 0.913725 1 
0.352941 0.207843 0.913725 1 0.352941 0.207843 0.913725 1 
0.352941 0.207843 0.913725 1 0.352941 0.207843 0.913725 1 
0.352941 0.207843 0.913725 1 0.352941 0.207843 0.913725 1 
0.352941 0.207843 0.913725 1 0.352941 0.207843 0.913725 1 
0.352941 0.207843 0.913725 1 0.352941 0.207843 0.913725 1 
0.352941 0.207843 0.913725 1 0.352941 0.207843 0.913725 1 
0.352941 0.207843 0.913725 1 0.352941 0.207843 0.913725 1 
0.352941 0.207843 0.913725 1 0.352941 0.207843 0.913725 1 
0.352941 0.207843 0.913725 1 0.352941 0.207843 0.913725 1 
0.352941 0.207843 0.913725 1 0.352941 0.207843 0.913725 1 
0.352941 0.207843 0.913725 1 0.352941 0.207843 0.913725 1 
0.352941 0.207843 0.913725 1 0.352941 0.207843 0.913725 1 
0.243137 0 0.968627 1 0.243137 0 0.968627 1 
0.243137 0 0.968627 1 0.243137 0 0.968627 1 
0.243137 0 0.968627 1 0.243137 0 0.968627 1 
0.243137 0 0.968627 1 0.243137 0 0.968627 1 
0.243137 0 0.968627 1 0.243137 0 0.968627 1 
0.243137 0 0.968627 1 0.243137 0 0.968627 1 
0.243137 0 0.968627 1 0.243137 0 0.968627 1 
0.243137 0 0.968627 1 0.243137 0 0.968627 1 
0.243137 0 0.968627 1 0.243137 0 0.968627 1 
0.243137 0 0.968627 1 0.243137 0 0.968627 1 
0.243137 0 0.968627 1 0.243137 0 0.968627 1 
0.243137 0 0.968627 1 0.243137 0 0.968627 1 
0.243137 0 0.968627 1 0.243137 0 0.968627 1 
0.243137 0 0.968627 1 0.243137 0 0.968627 1 
0.243137 0 0.968627 1 0.243137 0 0.968627 1 
0.243137 0 0.968627 1 0.243137 0 0.968627 1 
0.243137 0 0.968627 1 0.243137 0 0.968627 1 
0.243137 0 0.968627 1 0.243137 0 0.968627 1 
0.243137 0 0.968627 1 0.243137 0 0.968627 1 
0.243137 0 0.968627 1 0.243137 0 0.968627 1 
0.243137 0 0.968627 1 0.243137 0 0.968627 1 
0.243137 0 0.968627 1 0.243137 0 0.968627 1 
0.243137 0 0.968627 1 0.243137 0 0.968627 1 
0.243137 0 0.968627 1 0.243137 0 0.968627 1 
0.243137 0 0.968627 1 0.243137 0 0.968627 1 
0.243137 0 0.968627 1 0.243137 0 0.968627 1 
0.243137 0 0.968627 1 0.243137 0 0.968627 1 
0.243137 0 0.968627 1 0.243137 0 0.968627 1 
0.243137 0 0.968627 1 0.243137 0 0.968627 1 
0.243137 0 0.968627 1 0.243137 0 0.968627 1 
0.14902 0.0509804 0.988235 1 0.14902 0.0509804 0.988235 1 
0.14902 0.0509804 0.988235 1 0.14902 0.0509804 0.988235 1 
0.14902 0.0509804 0.988235 1 0.14902 0.0509804 0.988235 1 
0.14902 0.0509804 0.988235 1 0.14902 0.0509804 0.988235 1 
0.14902 0.0509804 0.988235 1 0.14902 0.0509804 0.988235 1 
0.14902 0.0509804 0.988235 1 0.14902 0.0509804 0.988235 1 
0.14902 0.0509804 0.988235 1 0.14902 0.0509804 0.988235 1 
0.14902 0.0509804 0.988235 1 0.14902 0.0509804 0.988235 1 
0.14902 0.0509804 0.988235 1 0.14902 0.0509804 0.988235 1 
0.14902 0.0509804 0.988235 1 0.14902 0.0509804 0.988235 1 
0.14902 0.0509804 0.988235 1 0.14902 0.0509804 0.988235 1 
0.14902 0.0509804 0.988235 1 0.14902 0.0509804 0.988235 1 
0.14902 0.0509804 0.988235 1 0.14902 0.0509804 0.988235 1 
0.14902 0.0509804 0.988235 1 0.14902 0.0509804 0.988235 1 
0.14902 0.0509804 0.988235 1 0.14902 0.0509804 0.988235 1 
0.101961 0.94902 0.294118 1 0.101961 0.94902 0.294118 1 
0.101961 0.94902 0.294118 1 0.101961 0.94902 0.294118 1 
0.101961 0.94902 0.294118 1 0.101961 0.94902 0.294118 1 
0.101961 0.94902 0.294118 1 0.101961 0.94902 0.294118 1 
0.101961 0.94902 0.294118 1 0.101961 0.94902 0.294118 1 
0.101961 0.94902 0.294118 1 0.101961 0.94902 0.294118 1 
0.101961 0.94902 0.294118 1 0.101961 0.94902 0.294118 1 
0.101961 0.94902 0.294118 1 0.101961 0.94902 0.294118 1 
0.101961 0.94902 0.294118 1 0.101961 0.94902 0.294118 1 
0.101961 0.94902 0.294118 1 0.101961 0.94902 0.294118 1 
0.101961 0.94902 0.294118 1 0.101961 0.94902 0.294118 1 
0.101961 0.94902 0.294118 1 0.101961 0.94902 0.294118 1 
0.101961 0.94902 0.294118 1 0.101961 0.94902 0.294118 1 
0.101961 0.94902 0.294118 1 0.101961 0.94902 0.294118 1 
0.101961 0.94902 0.294118 1 0.101961 0.94902 0.294118 1 
0.494118 0.211765 0.843137 1 0.494118 0.211765 0.843137 1 
0.494118 0.211765 0.843137 1 0.494118 0.211765 0.843137 1 
0.494118 0.211765 0.843137 1 0.494118 0.211765 0.843137 1 
0.494118 0.211765 0.843137 1 0.494118 0.211765 0.843137 1 
0.494118 0.211765 0.843137 1 0.494118 0.211765 0.843137 1 
0.494118 0.211765 0.843137 1 0.494118 0.211765 0.843137 1 
0.494118 0.211765 0.843137 1 0.494118 0.211765 0.843137 1 
0.494118 0.211765 0.843137 1 0.494118 0.211765 0.843137 1 
0.494118 0.211765 0.843137 1 0.494118 0.211765 0.843137 1 
0.494118 0.211765 0.843137 1 0.494118 0.211765 0.843137 1 
0.494118 0.211765 0.843137 1 0.494118 0.211765 0.843137 1 
0.494118 0.211765 0.843137 1 0.494118 0.211765 0.843137 1 
0.494118 0.211765 0.843137 1 0.705882 0 0.705882 1 
0.705882 0 0.705882 1 0.705882 0 0.705882 1 
0.705882 0 0.705882 1 0.705882 0 0.705882 1 
0.705882 0 0.705882 1 0.705882 0 0.705882 1 
0.705882 0 0.705882 1 0.705882 0 0.705882 1 
0.705882 0 0.705882 1 0.705882 0 0.705882 1 
0.705882 0 0.705882 1 0.705882 0 0.705882 1 
0.705882 0 0.705882 1 0.705882 0 0.705882 1 
0.705882 0 0.705882 1 0.705882 0 0.705882 1 
0.705882 0 0.705882 1 0.705882 0 0.705882 1 
0.705882 0 0.705882 1 0.705882 0 0.705882 1 
0.705882 0 0.705882 1 0.705882 0 0.705882 1 
0.705882 0 0.705882 1 0.705882 0 0.705882 1 
0.705882 0 0.705882 1 0.705882 0 0.705882 1 
0.705882 0 0.705882 1 0.705882 0 0.705882 1 
0.705882 0 0.705882 1 0.705882 0 0.705882 1 
0.705882 0 0.705882 1 0.705882 0 0.705882 1 
0.705882 0 0.705882 1 0.705882 0 0.705882 1 
0.0509804 0.996078 0.0509804 1 0.0509804 0.996078 0.0509804 1 
0.0509804 0.996078 0.0509804 1 0.0509804 0.996078 0.0509804 1 
0.0509804 0.996078 0.0509804 1 0.0509804 0.996078 0.0509804 1 
0.0509804 0.996078 0.0509804 1 0.0509804 0.996078 0.0509804 1 
0.0509804 0.996078 0.0509804 1 0.0509804 0.996078 0.0509804 1 